<?xml version="1.0" encoding="UTF-8"?>

<!-- generated on 2023-03-23 11:39:42 by Eclipse SUMO GUI Version 1.16.0
<configuration xmlns:xsi="http://www.w3.org/2001/XMLSchema-instance" xsi:noNamespaceSchemaLocation="http://sumo.dlr.de/xsd/sumoConfiguration.xsd">

    <input>
        <net-file value="C:\Users\rohak.roy\Sumo\myJunction\myJunction.net.xml"/>
        <route-files value="C:\Users\rohak.roy\Sumo\myJunction\myJunction.rou.xml"/>
        <additional-files value="C:\Users\rohak.roy\Sumo\myJunction\myJunction.add.xml"/>
    </input>

</configuration>
-->

<detector xmlns:xsi="http://www.w3.org/2001/XMLSchema-instance" xsi:noNamespaceSchemaLocation="http://sumo.dlr.de/xsd/det_e1_file.xsd">
    <interval begin="0.00" end="85.00" id="WtoJ" nVehContrib="8" flow="338.82" occupancy="5.89" speed="12.54" harmonicMeanSpeed="12.45" length="7.84" nVehEntered="8"/>
    <interval begin="0.00" end="85.00" id="EtoJ" nVehContrib="0" flow="0.00" occupancy="0.00" speed="-1.00" harmonicMeanSpeed="-1.00" length="-1.00" nVehEntered="0"/>
    <interval begin="0.00" end="85.00" id="NtoJ" nVehContrib="7" flow="296.47" occupancy="4.66" speed="7.94" harmonicMeanSpeed="6.34" length="4.23" nVehEntered="7"/>
    <interval begin="0.00" end="85.00" id="StoJ" nVehContrib="0" flow="0.00" occupancy="0.00" speed="-1.00" harmonicMeanSpeed="-1.00" length="-1.00" nVehEntered="0"/>
</detector>
